30
Properties=species:S:1:pos:R:3 calc_mode=gop-qsc opt_step=469 total_energy=-76.95387903336277 pbc="F F F"
Ag      -1.77157638       2.22709824      -2.92424005
Ag       1.41696081      -1.09703820      -3.76780909
Ag       2.05589888      -3.11476711       1.41776100
Ag      -3.39319124       0.15454385      -2.21624748
Ag      -0.39170228      -2.49174883       2.98052012
Ag       1.64264520       1.12379087      -0.46165888
Ag      -0.31102167       0.24988413       3.59237558
Ag       2.05507979       3.57187185       0.75521630
Ag      -0.24014098       1.95656993       1.42624229
Ag       2.37982469       1.29734050       2.32471550
Ag      -2.75613589      -1.07860873       3.67225608
Ag      -0.47137097      -2.96510606       0.20581941
Ag      -0.62683102      -2.53718108      -2.54478265
Ag      -0.69407456      -0.05619141      -1.30587772
Ag       1.71479076      -1.73696517      -1.13872892
Ag      -1.82317871      -0.58650644       1.15529243
Ag      -2.85254244      -3.05433878       1.72944832
Ag       2.77864124       3.12783435      -1.92274848
Ag      -2.79485516       1.49174146       2.56463288
Ag      -4.34876340      -0.08612490       0.43425953
Ag      -2.45564104       1.87076856      -0.22490898
Ag       3.52025053      -0.75334161       0.75617903
Ag       0.89005056       1.48942211      -3.12883623
Ag       0.80794104      -0.71513350       1.25295230
Ag       2.16928186      -1.25279621       3.50958727
Ag       3.42149280       0.28181360      -2.26955147
Ag      -1.22696945      -0.25313975      -4.00781537
Ag       4.19837895       1.85666901       0.11364578
Ag      -0.02458071       3.22611670      -1.07518833
Ag      -2.86866125      -2.14647738      -0.90251018
