30
Properties=species:S:1:pos:R:3 calc_mode=gop-qsc opt_step=1457 total_energy=-76.88914905864613 pbc="F F F"
Ag       2.42942717       3.13922475      -0.71609896
Ag       4.42074373      -1.13907478       1.86390232
Ag       0.96073596      -0.01416498      -4.21853365
Ag      -0.56949172      -2.26886095      -3.50057071
Ag      -0.29109912       3.47874933      -0.13480387
Ag      -3.92303503       0.54909955      -1.69978963
Ag      -2.41787820      -0.10902435       2.34492264
Ag       1.21295325       1.04089534       0.46835445
Ag       0.27161858      -3.21655762      -0.95726322
Ag       2.75615017       0.61851845      -2.12538892
Ag      -0.23807149      -1.23680451       0.98170386
Ag       0.37813418       2.10329031      -2.39518508
Ag      -2.33901318       2.81671606      -1.94000425
Ag      -1.67282791       0.36146155      -3.23911945
Ag       1.23615891       3.15597528       2.16013861
Ag      -2.15986075      -1.69491411      -1.20466589
Ag      -0.79131198      -2.01583375       3.58233554
Ag       0.34547376      -3.78445114       1.76015734
Ag      -1.53250258       2.52430011       2.09822041
Ag      -1.54294925       0.89417897      -0.20246206
Ag       0.33249998      -0.53468823      -1.60411848
Ag      -4.21124372      -0.99498739       0.52007613
Ag       0.18507383       0.61147248       3.09000874
Ag       2.45159923      -1.45627058      -0.04078656
Ag       2.18160852      -2.12708117      -2.79294573
Ag      -3.89987996       1.79547777       0.78210282
Ag       2.89386112       0.98261597       2.75160941
Ag       1.86649676      -1.62585928       2.73373632
Ag       4.00901108       1.03233927       0.25516712
Ag      -2.34238132      -2.88574235       1.37930077
