30
Properties=species:S:1:pos:R:3 calc_mode=gop-qsc opt_step=1739 total_energy=-77.20731353706466 pbc="F F F"
Ag      -4.00334656       0.46961062       3.00054731
Ag      -1.02445951      -3.01727272      -2.31603345
Ag       3.46910572       0.04466018       2.16532154
Ag      -1.35901276       3.76582284      -0.37667303
Ag       1.58693306       1.10997247      -2.73897261
Ag      -3.34035898       2.57862313       1.24639769
Ag      -0.87104951      -2.06031274       2.48085452
Ag      -0.65713491       2.56067188       2.04170987
Ag       3.52079807      -2.53739289      -0.72560786
Ag       2.11107036       2.34297320       1.10048376
Ag       1.89717827      -2.27802878       1.53925458
Ag       3.90808547      -0.42407713      -2.56502104
Ag      -4.67389416       0.24958071       0.35367642
Ag      -0.04413150       1.36139252      -0.44396932
Ag      -1.97364174       0.19981638       1.14476798
Ag       1.36253353       3.55229046      -1.30203869
Ag       5.01876140      -0.23794751      -0.06789422
Ag       1.45504798      -1.74497809      -2.46780985
Ag      -3.55138267      -1.98261340       1.67920575
Ag      -0.76455853       2.60925443      -2.85049000
Ag       1.02099256      -3.84302873      -0.60000899
Ag      -2.87948460      -1.40471101      -0.99369022
Ag      -0.17219774      -1.41078478      -0.18067999
Ag       2.26712136      -0.13283402      -0.29744060
Ag      -0.91253776      -0.20803857      -2.63524803
Ag      -2.74767459       1.45018385      -1.26470741
Ag       0.72288515       0.16472499       2.08744661
Ag      -1.39648113       0.42794343       3.81994868
Ag       3.73139658       2.02383095      -1.15911100
Ag      -1.70056288      -3.62933168       0.32578158
