30
Properties=species:S:1:pos:R:3 calc_mode=gop-qsc opt_step=1564 total_energy=-77.09303516295648 pbc="F F F"
Ag      -1.78517422       0.42715111      -4.96564934
Ag       0.73827891      -3.09440524       2.61729858
Ag       0.43688981       1.24969312      -3.57819133
Ag       0.95412908      -3.30261286      -1.92518537
Ag      -0.79798245       0.21715034      -1.30950952
Ag      -2.32802881       2.21450725      -0.02339421
Ag      -1.81169165      -2.37815149       1.60973300
Ag      -0.07492063       3.06768939       1.45346609
Ag       3.28148009      -1.03668403       0.35342401
Ag       2.29732337       3.71872039       0.11364493
Ag       0.54635002      -1.65514841       0.25682448
Ag       0.05269165       2.94731823      -1.37509190
Ag      -2.40370918       2.28843978       2.77602270
Ag      -2.18310170       2.08322203      -2.82042089
Ag       0.08344842       1.54632145       3.80391917
Ag      -3.03240093      -0.57851025      -2.74380762
Ag      -0.76301326      -1.10960372       3.87994467
Ag       2.41121205      -3.66371018       0.44222352
Ag      -3.23765064      -0.32793258       2.85164197
Ag      -0.42653223      -1.45599818      -3.50045772
Ag       1.85590748      -0.65065176      -2.04265823
Ag      -1.68551969      -2.50070096      -1.21866573
Ag      -0.91353157       0.33475157       1.51517425
Ag       1.40739320       1.04440033       0.17959671
Ag       2.65745851       2.03553446      -2.07779239
Ag      -3.18012069      -0.45656261       0.05353918
Ag       2.43523561       2.22820787       2.46521714
Ag       1.64896505      -0.45212690       2.57226599
Ag       4.09313775       1.60983383       0.29204538
Ag      -0.27652336      -4.35014196       0.34484247
