30
Properties=species:S:1:pos:R:3 calc_mode=gop-qsc opt_step=335 total_energy=-76.57907866345195 pbc="F F F"
Ag       2.20790316      -1.17471823      -4.55657119
Ag       1.59233586       1.29981695       4.08434203
Ag       0.18787473       0.63758512      -4.71788229
Ag      -1.52836838      -0.81585919       1.47709550
Ag       0.13222051      -1.02165884       3.88266373
Ag       2.46416496      -2.33554570      -2.09831366
Ag      -1.73795103      -3.46216059       0.58765012
Ag       2.87952297      -2.94503222       0.55120442
Ag      -2.48228783       2.98233744      -1.65373428
Ag      -1.93963459       0.60007547      -3.00687869
Ag      -0.67795955       1.07906877      -0.61831858
Ag      -0.27218202       4.00298058      -0.38199073
Ag      -0.11909960      -1.69354812      -3.14362436
Ag       3.28046448       1.67619398       1.96109566
Ag      -3.67359000       0.63055641       2.34658706
Ag       0.65391531       3.11086987       2.07878746
Ag      -1.14319585       1.34097932       3.36432786
Ag      -3.45032054       0.71327457      -0.40396904
Ag       0.85824494       0.45536137       1.56555756
Ag       3.06654210      -0.27117631      -0.04654722
Ag      -2.10723832       2.63143449       1.15874817
Ag       0.65406303      -4.08014707      -0.72659534
Ag       0.06819890       2.64539675      -2.78325515
Ag      -3.99741218      -1.73615225       0.81140778
Ag      -2.14898668      -1.53361821      -1.27568177
Ag       2.73769422      -1.10184948       2.69974578
Ag       0.49964904      -1.42010901      -0.40558452
Ag       1.87067864       2.28938207      -0.36833533
Ag       1.56781939       0.35287158      -2.32715590
Ag       0.55693434      -2.85660950       1.94522493
