30
Properties=species:S:1:pos:R:3 calc_mode=gop-qsc opt_step=1295 total_energy=-76.72524053210734 pbc="F F F"
Ag      -0.12502283      -0.31865426       4.21680921
Ag      -1.23040049      -0.39632926       1.68112661
Ag      -3.24574052       0.15499455      -2.68482947
Ag      -3.44626016      -0.60848459      -0.00478208
Ag       1.86229911       3.35909410       1.89083502
Ag       1.18516046       0.85765837       0.75489494
Ag       1.34175636      -1.57911632       2.25324125
Ag       2.21108929       0.90979328       3.29813044
Ag       3.93414093       1.71079686       1.21858562
Ag      -0.30147939       3.16503362       0.15718594
Ag      -0.66455898      -1.26263558      -2.97824915
Ag       0.51129418      -3.97731751       1.03637568
Ag       0.37576840      -1.50893121      -0.34511630
Ag      -0.96738316      -2.76753304       3.12129397
Ag      -0.33306664      -3.74803344      -1.67839988
Ag      -1.06213583       1.36221003      -3.77712446
Ag      -2.65330574       1.95081892       0.99259291
Ag      -2.86946517      -2.50404709      -1.98690378
Ag      -2.38644923       2.93854036      -1.81600749
Ag       3.28338960      -0.20606424      -0.71664768
Ag       1.25182474       0.66572511      -2.31523381
Ag      -1.13916642       0.69228787      -0.95771875
Ag      -1.93659168      -2.87999718       0.53719300
Ag       3.93940304      -0.91304042       1.89255229
Ag       2.81624258      -2.78512296       0.13095001
Ag       2.40922837       2.74121788      -0.82686965
Ag       0.30378493       3.31383206      -2.49881148
Ag      -4.63608402       1.69766663      -0.89124761
Ag       1.97614069      -2.09407274      -2.45725201
Ag      -0.40441241       2.02971021       2.75342671
