30
Properties=species:S:1:pos:R:3 calc_mode=gop-qsc opt_step=334 total_energy=-76.61397947647036 pbc="F F F"
Ag       4.02548852      -0.71386795       2.28733473
Ag       0.71038233       0.38303542      -4.94912749
Ag       1.19860618       1.14711870       3.81159571
Ag      -1.70592100      -0.56751096       1.14827721
Ag      -0.75602120      -0.85638771       3.77890538
Ag       2.36984916      -2.46847346      -1.87227327
Ag      -2.01753318      -3.31862388       0.16259709
Ag       2.46584062      -2.53457202       0.89931601
Ag      -2.08690004       2.97154288      -2.21739407
Ag      -1.29753531       0.45315977      -3.13260466
Ag      -0.37554859       1.25109613      -0.64298926
Ag      -0.02135997       4.07510076      -0.79296203
Ag       0.05950328      -1.96240763      -3.46124626
Ag       3.11023992       1.78539720       1.80544999
Ag      -3.92504712       0.94967783       1.65060107
Ag       0.54351989       2.74130614       1.55353174
Ag      -1.51347642       1.59655573       2.92684849
Ag      -3.11798324       0.72836474      -0.98514982
Ag       1.07455965      -0.09468433       1.40013790
Ag       3.29853198      -0.18372742      -0.30657890
Ag      -2.20198184       2.90356681       0.59343921
Ag       0.60764956      -4.15529754      -0.45200680
Ag       0.52619103       2.57644955      -3.08876832
Ag      -4.12114975      -1.51345501       0.24554627
Ag      -2.43397577      -1.77182565      -2.02039636
Ag       1.86158264      -1.62402578       3.60967671
Ag       0.03744745      -1.52290544      -0.73506465
Ag       2.17091401       2.34223813      -0.75040639
Ag       1.55871840       0.13402138      -2.39161096
Ag      -0.04459117      -2.75086638       1.92532171
