30
Properties=species:S:1:pos:R:3 calc_mode=gop-qsc opt_step=4331 total_energy=-77.0083477706785 pbc="F F F"
Ag      -1.73903266       3.94642991       1.70161896
Ag       2.41056196      -2.39953448      -3.14520865
Ag       0.55801425      -0.27606666      -3.22042710
Ag      -3.45258014       1.04961654      -1.45245585
Ag      -3.91337356       2.28568868       1.05084558
Ag       0.50028499      -0.08426682       1.34707397
Ag      -3.10063748      -0.40416304       0.93525337
Ag       2.55320502      -3.77301571      -0.69441972
Ag      -1.98328098       1.33188651       2.84842538
Ag       0.76484462       2.59831265       1.86237778
Ag       4.38267858      -1.75062972      -1.21454692
Ag       2.78115978       0.65601717       2.69368957
Ag      -2.71013807       3.73350143      -0.99363570
Ag      -2.19059639      -0.36339448      -3.49717766
Ag       1.23585640       1.55024230      -0.93230064
Ag      -0.00929106      -3.11609121      -1.74071024
Ag      -1.01915023       1.98608612      -2.49937127
Ag       0.37570840       0.75878677       4.02288563
Ag      -0.00199767       3.99198808      -0.51458574
Ag      -2.00222593      -2.90668591       0.39366995
Ag       3.64627125       0.63215046       0.09059322
Ag       3.19599854       0.31433862      -2.65048884
Ag       1.42153273      -1.70695095       3.47191539
Ag      -1.31975792       1.69524463       0.23778950
Ag       3.21631945      -1.82464728       1.36670288
Ag      -3.56202379      -1.72485125      -1.52872072
Ag      -1.31009804      -1.47481964       2.80018619
Ag       1.70522416      -1.15714997      -0.83564475
Ag       0.61346139      -2.88641397       1.09107921
Ag      -1.04693760      -0.68160878      -0.99441276
