30
Properties=species:S:1:pos:R:3 calc_mode=gop-qsc opt_step=447 total_energy=-76.90042760794464 pbc="F F F"
Ag      -1.96761107       3.65680391      -2.08026958
Ag       3.40593574       2.55809930      -1.12229677
Ag      -2.97651798       1.04344346      -2.05491407
Ag       1.92511994      -3.43938133       2.08938956
Ag      -0.22359239      -4.57029815       0.66710081
Ag      -1.39776160      -0.25962804       1.06217630
Ag       3.68009884       0.98176889       1.14426879
Ag      -3.27390159      -1.75170527       2.44335594
Ag      -0.83064397      -0.76629509      -1.84192127
Ag       2.19927494      -4.01428363      -0.65248451
Ag      -0.91241224       2.20217241       2.22146786
Ag       3.27735539      -1.66234171       0.45105387
Ag       1.16644874       0.00473457       2.14557783
Ag       0.91833302       3.45844487      -1.86909599
Ag       0.56305242      -1.97144419       0.20464549
Ag       2.12096678       1.10196522      -3.15911613
Ag      -0.71700168       1.73154619      -0.58688830
Ag       1.48521571       2.75108310       0.91703310
Ag      -1.18863648      -0.13310491       3.79347430
Ag       4.14801678      -0.05220926      -1.59554452
Ag       1.61992211       0.43244698      -0.58116005
Ag      -0.65444550      -2.56316801       2.59073408
Ag      -3.94583397      -0.28876058       0.14080881
Ag      -0.57280466       1.59030416      -3.36014388
Ag      -0.24644920      -3.51404602      -1.93080649
Ag       1.92193270      -1.70501548      -2.26682906
Ag      -0.79756061       4.29626396       0.34247862
Ag      -3.12781467       2.53392694       0.33087849
Ag      -2.17842361      -2.64627164      -0.03283492
Ag      -3.42026192       0.99494933       2.58986170
