30
Properties=species:S:1:pos:R:3 calc_mode=gop-qsc opt_step=1424 total_energy=-76.74360989528343 pbc="F F F"
Ag       2.78436311       1.37847305       1.64960044
Ag       2.77527556      -0.50196597       3.71413429
Ag       4.02438196      -1.03920391       1.29931126
Ag       0.58413655      -3.28564875      -2.33040937
Ag      -3.08678916      -1.80285892      -2.23860043
Ag      -1.77370908      -3.61158018      -0.61116730
Ag      -0.51555714       1.11010530      -2.85712304
Ag       1.15387070       0.89868252      -0.60512865
Ag       0.23768684      -1.56082031       4.05985171
Ag      -0.89188976      -1.50138082      -3.84045036
Ag      -1.06262832       0.59485681       1.00929357
Ag      -1.78271530       2.57033127       2.87694440
Ag       1.60195351      -0.63811483      -3.06015472
Ag      -2.73539488       0.80562734      -1.23918861
Ag       0.79573904      -3.56793771       0.41287920
Ag       1.21392766      -0.98776997       1.48047705
Ag       2.48539614      -1.81869653      -0.82647644
Ag       2.20459994       2.05041423      -2.88859946
Ag       0.51212207       2.96759803       1.26441753
Ag      -2.13811578      -0.18926423       3.37014526
Ag       3.82663127       0.63645287      -0.97137796
Ag      -3.72097713       1.23460818       1.42898115
Ag       2.76443063       3.19834727      -0.43695686
Ag       0.49701062       1.06299888       3.31645825
Ag      -1.17233035      -2.33039400       1.84303619
Ag      -3.22328699      -1.30307255       0.46416495
Ag      -0.57344620      -1.19676842      -1.01396482
Ag      -2.92602841       0.34184251      -3.94818191
Ag      -2.04238777       3.09010267       0.15043323
Ag       0.18373069       3.39503619      -1.47234855
