30
Properties=species:S:1:pos:R:3 calc_mode=gop-qsc opt_step=191 total_energy=-77.00803074037744 pbc="F F F"
Ag      -2.24313158       3.34145912       1.70325176
Ag      -0.28432904      -0.11365548      -4.02697797
Ag      -1.00783173       2.07304649      -2.51987112
Ag       2.77991276      -2.06914990       0.72930641
Ag       3.96510904       0.32773732       1.38851359
Ag       2.22220378      -1.12018399      -3.69743410
Ag       0.99277945       3.77092398      -1.58017729
Ag      -0.55899728       1.44550425       0.18564442
Ag       0.73309163      -2.74013509       2.51618392
Ag      -1.59177746       4.08850905      -0.78312881
Ag      -1.07516214      -1.30041161       0.85662854
Ag      -0.31981791       1.88630123       3.02348094
Ag       3.62415572      -0.32967677      -1.35318327
Ag       2.60805543      -2.99176782      -1.82610043
Ag      -3.16426590       1.73623467      -0.55917700
Ag      -2.20368695      -3.09027851      -0.95771629
Ag      -1.76844364      -0.45575559      -1.73083586
Ag      -3.17304029      -1.98356921       2.59683354
Ag       2.19619296       1.78872801      -0.09838666
Ag       0.94188069      -0.67955123      -1.02601745
Ag       1.23024872      -0.06643233       1.81690734
Ag      -0.07034915      -2.56895834      -2.76504369
Ag       0.50344600       3.80130659       1.14824518
Ag      -1.58529587      -3.95678666       1.60976571
Ag      -0.87651283      -0.78125673       3.60020651
Ag       1.70714146       1.39135909      -2.77912490
Ag       2.39407360       2.32414061       2.59494956
Ag      -3.77239345      -0.98909655       0.08318213
Ag      -2.66973140       0.67582912       2.01740575
Ag       0.46647536      -3.41441374      -0.16733046
