30
Properties=species:S:1:pos:R:3 calc_mode=gop-qsc opt_step=2099 total_energy=-76.94173878373279 pbc="F F F"
Ag       2.10563099       0.29018325      -4.00395031
Ag      -0.50220761       1.36424119      -3.39647302
Ag      -3.11421119       1.54783600      -2.08052771
Ag      -3.02574570      -0.42773928       0.08854249
Ag       0.53240034      -1.04065421       3.53365424
Ag      -1.26298607       3.53798211      -1.62813943
Ag       3.81361640       0.72623278       0.33466158
Ag      -0.95969800       0.69314180       1.91519674
Ag      -0.68436072       3.48680936       1.09148128
Ag      -2.09364381      -0.95636287      -2.52826055
Ag      -0.95145584      -2.20879857      -0.20245917
Ag       0.60875049       1.77062421       3.84578858
Ag      -0.48172422      -3.27439697      -2.77595750
Ag       1.60458435       2.10264733       1.25783456
Ag      -3.04992373       2.28537021       0.61192704
Ag      -3.63777203       0.43758387       2.64511046
Ag      -0.78060221       1.06339957      -0.69078795
Ag       3.43080706      -1.99283359       1.00824446
Ag       2.04852320      -2.51836608      -3.68659567
Ag       1.84134215       1.55814451      -1.50054767
Ag      -1.67516165       0.22113373       4.55450254
Ag       0.84481290      -3.05753454       1.73597143
Ag       1.19645034      -0.53529308       0.61512134
Ag       1.67428494      -3.11928092      -0.90645336
Ag      -0.22600919      -1.16393996      -4.64562128
Ag      -1.88759389      -1.82118670       2.39993630
Ag       2.84039221       0.16491120       2.82343553
Ag       0.59611086      -0.85142518      -2.05297433
Ag       3.30676358      -0.98471211      -1.70495672
Ag      -2.11137397       2.70228293       3.34229609
