30
Properties=species:S:1:pos:R:3 calc_mode=gop-qsc opt_step=3575 total_energy=-76.9645873158581 pbc="F F F"
Ag       0.13488282       0.29731813       4.49047718
Ag      -2.46949699       0.69328947       3.62910809
Ag      -0.61798884       2.84833134       3.55255934
Ag      -3.78530567       0.77345673      -1.00790840
Ag      -2.29987036      -1.61031019      -1.41683005
Ag       3.32375802       0.02683846       0.81785211
Ag       1.54816762      -1.18607290       2.55627569
Ag       4.09090659      -0.88292161      -1.69622038
Ag      -0.22422173      -1.44383407       0.41934342
Ag       2.48357546      -0.44345762      -3.93908438
Ag       0.37859194       1.23445211      -3.43341381
Ag       1.99385838       1.59817228       2.89269736
Ag      -0.59634209       3.52900029       0.81387335
Ag      -2.81884294      -0.64100437       1.16244406
Ag      -0.40310404       0.82660469       1.81217832
Ag      -2.25511318       0.51064745      -3.26505561
Ag      -2.86171382       2.12165095       1.24968645
Ag      -1.13985435      -1.77029189       3.05456789
Ag      -0.95730131       0.95380743      -0.87233148
Ag      -2.13788982      -3.35294796       0.81316830
Ag      -2.42339705       3.17387491      -1.36121277
Ag       2.20704552      -2.79538240      -2.56589940
Ag       0.32129381       3.39228525      -1.80585415
Ag      -0.07705706      -3.57764571      -1.19159666
Ag       1.58204840       2.00955432       0.18406820
Ag       0.45068752      -3.73441198       1.73684503
Ag       2.38807608      -2.51631834       0.15985434
Ag       1.46898580      -0.33239865      -1.33591315
Ag       2.88600953       1.78627038      -2.26548701
Ag      -0.19038825      -1.48855646      -3.18819191
