30
Properties=species:S:1:pos:R:3 calc_mode=gop-qsc opt_step=2862 total_energy=-76.82415566658929 pbc="F F F"
Ag      -2.65800853       2.82320275       1.83560212
Ag      -2.23595420       3.85362993      -0.76019382
Ag       2.18502640       3.01597193       0.67014835
Ag       2.02899498       0.68954673      -0.80721132
Ag      -0.57209540      -3.32702597       0.26441940
Ag      -1.29017788      -2.56789488      -2.45632789
Ag       3.62039590      -1.43245549      -0.05454307
Ag      -1.27827707      -0.40851324      -4.31054218
Ag      -2.63354379      -1.53562928      -0.05341153
Ag       2.19303178      -3.73054628       0.67398599
Ag       3.09356329      -1.98988651       2.65013122
Ag      -0.58626069      -0.16463350      -1.39826907
Ag      -1.83177298       1.90055548      -2.91993712
Ag      -0.29010825       4.00183310       1.21824620
Ag       0.17990766       2.67078115      -1.23643465
Ag       0.96796763       0.93625721      -3.38998988
Ag      -2.84421650       1.22773414      -0.43219943
Ag       1.02272283      -1.77750706      -4.15508454
Ag       0.99965966       2.35115130       3.09462559
Ag      -1.43558603       1.10760176       3.65974954
Ag      -3.27949610      -0.52654731      -2.51213481
Ag       3.20495864      -0.72376906      -2.82616017
Ag      -0.45354755       1.16895165       1.06783512
Ag      -3.52582445       0.21849936       2.01755155
Ag       2.88545057       0.64782623       1.86824522
Ag       0.93984667      -0.40433986       3.60930643
Ag       0.99224970      -1.17692023       0.95248703
Ag       0.62328640      -3.19298159       2.87910650
Ag       1.34215849      -2.27127841      -1.52469393
Ag      -1.36435117      -1.38361403       2.37569314
