30
Properties=species:S:1:pos:R:3 calc_mode=gop-qsc opt_step=1293 total_energy=-76.96914967482942 pbc="F F F"
Ag      -3.10913023       0.23211851       2.84667413
Ag      -0.82800869       0.18022156       1.34513128
Ag      -0.70671339      -0.29197358       4.04620276
Ag      -3.22979784      -0.77282633       0.23845279
Ag       1.83875295       3.23483655       1.74843166
Ag       1.68026864       0.71069388       0.54625580
Ag       1.07775074      -1.63072230       2.33814221
Ag       1.64436035       0.94944085       3.28330660
Ag       4.11976440       1.88811636       0.91095050
Ag      -0.23474090       2.75596864       0.02171141
Ag      -0.29437409      -1.55398130      -3.08139118
Ag       0.25944028      -3.91851363       0.98509531
Ag       0.44710761      -1.53509090      -0.43182823
Ag      -1.70580756      -2.26557057       2.12049448
Ag       0.47499367      -3.96988321      -1.76863711
Ag      -2.11083274       1.11855217      -3.78174760
Ag      -2.83104462       1.99768863       0.70353924
Ag      -2.96839349      -1.29990754      -2.55084732
Ag      -2.34707070       3.17202171      -1.78780043
Ag       3.82282102      -0.35059366      -0.78676632
Ag       1.52520981       0.40198496      -2.22665144
Ag      -1.21684842       0.53520051      -1.32842891
Ag      -1.85771103      -2.99491072      -0.65055538
Ag       3.64290820      -0.61701779       1.99997671
Ag       2.77373793      -2.72440745       0.35046848
Ag       2.35807272       2.82557730      -1.06143407
Ag       0.10281406       2.63268233      -2.79794634
Ag      -4.03258884       1.05845965      -1.68378028
Ag       2.43385819      -2.18084601      -2.36815521
Ag      -0.72879802       2.41268138       2.82113645
