30
Properties=species:S:1:pos:R:3 calc_mode=gop-qsc opt_step=3617 total_energy=-76.55317840429852 pbc="F F F"
Ag       2.98449693       1.86803348      -4.12032886
Ag       1.94764719      -0.68514451      -4.23887607
Ag      -0.63323191       0.12058857       4.21125612
Ag       1.43554211       2.70314562       3.03995297
Ag       0.36008234      -1.96346299       2.58562704
Ag      -0.93515343      -1.33872704       0.06263982
Ag      -1.19814199       3.27279467       2.76655269
Ag      -2.83007657       1.11923595       2.68529605
Ag       1.79378928      -0.88890705       0.41976343
Ag       0.24687287       1.04437706      -0.95897851
Ag       2.53400312       1.72938102       0.66902868
Ag       1.89995702      -2.35017535      -1.94924214
Ag       1.95534685       3.03718414      -1.83193955
Ag      -2.21674636       0.97735124      -2.19034772
Ag      -2.08007917       2.35171928       0.25740813
Ag      -2.87066824      -1.72169461      -2.05335190
Ag      -3.37854679      -0.08149690       0.20685820
Ag      -3.46243117      -2.85053925       0.31494324
Ag      -1.21057325      -3.89265493       1.34734696
Ag      -0.33256836      -1.03383432      -2.73780872
Ag      -0.18184979       0.84391137       1.68939600
Ag      -2.33553716      -1.53308985       2.48577817
Ag       2.15141451       0.07492908       3.05240854
Ag       2.78417514       0.35327738      -1.84860615
Ag       0.31165645       1.51867457      -3.66823791
Ag      -0.81790270       3.42452413      -1.98815896
Ag       1.32952803      -3.60058284       0.44395879
Ag       3.05729704      -2.44415104       2.28956063
Ag      -0.74349563      -3.55397108      -1.46548613
Ag       0.43519361       3.49930419       0.52358715
