30
Properties=species:S:1:pos:R:3 calc_mode=gop-qsc opt_step=1519 total_energy=-76.75584632494014 pbc="F F F"
Ag       0.30816787      -0.71436810      -5.33486388
Ag      -3.83206864       1.10956462       3.37950243
Ag      -0.68001894       1.47674684      -4.03462932
Ag      -1.16312035       1.25686437       2.81027272
Ag      -3.09528082       2.02861897       0.87970382
Ag       2.00288993       3.64324494       0.25215310
Ag      -2.17981017       1.36189476      -1.69620558
Ag       2.88756503       0.13349836       3.34257412
Ag      -3.50145461      -1.08831647      -1.35929312
Ag      -4.37677860      -0.41289498       1.18659216
Ag       2.62380722       1.21117126      -0.86914602
Ag       3.41505478      -1.14109195      -2.04697164
Ag      -1.05025903      -2.52346210      -1.13357713
Ag      -0.38054891      -2.55396444       1.62636356
Ag       2.25330439      -2.37570286       2.40295816
Ag       1.00685596      -2.09444110      -3.08356064
Ag      -2.41541546      -1.24436858       3.06934644
Ag      -3.03201952      -2.79181714       0.80980014
Ag       1.60564242      -2.26237381      -0.33241228
Ag       0.73716448       2.78964830      -2.12793415
Ag       1.34798510       2.36617273       2.63060107
Ag       1.08662744      -0.01285687       1.22021301
Ag      -1.61283470      -1.00028798      -3.37122023
Ag      -1.64345148      -0.32183007       0.54792370
Ag       1.93842838       0.63238574      -3.57356773
Ag      -0.35297754       2.21076800       0.31773991
Ag       0.22226974       0.01660789      -1.50059228
Ag       3.75893894      -0.75720160       0.74351443
Ag       0.31136985      -0.87203694       3.75500348
Ag       3.80996726       1.92982821       1.48971175
