30
Properties=species:S:1:pos:R:3 calc_mode=gop-qsc opt_step=3624 total_energy=-76.51392904655148 pbc="F F F"
Ag      -0.48174798      -1.87076372       4.48556193
Ag      -0.83410798      -5.14605860       0.06413664
Ag      -0.22666507       0.80588732       3.82885755
Ag       1.98428369       3.10417025       2.19591836
Ag       0.94801426      -1.31151248       2.20892923
Ag      -0.59187707      -1.07651277      -0.34382221
Ag      -0.69997463       3.53054530       2.36224662
Ag      -2.53814839       1.54269923       2.40012122
Ag       2.09812221      -0.54717278      -0.34585729
Ag       0.23143742       1.35313906      -1.45976866
Ag       2.73696175       2.09981864      -0.31187790
Ag       1.85951010      -2.31718360      -2.40470479
Ag       1.80618957       3.25324995      -2.66893538
Ag      -2.28085592       1.14609434      -2.50294062
Ag      -1.90631570       2.60590482      -0.07311075
Ag      -2.78959070      -1.56471917      -2.15305798
Ag      -3.07299442       0.08985843       0.03365925
Ag      -2.49956639      -2.94496667       0.24930735
Ag      -0.65155282      -3.57065307       2.27940831
Ag      -0.30454079      -0.80962219      -3.16088622
Ag       0.21588016       1.17851592       1.20890889
Ag      -1.80546587      -1.05317439       2.22439660
Ag       2.94561941       0.55558421       2.05933098
Ag       2.28968514       0.44635676      -2.97943091
Ag       0.02995197       1.72896077      -4.19176375
Ag      -0.96002699       3.66187849      -2.47363112
Ag       1.16434598      -3.22044994       0.15389125
Ag       3.43204649      -2.14985328       1.41715172
Ag      -0.68884753      -3.34774182      -1.97633584
Ag       0.59023010       3.82772098      -0.12570246
