30
Properties=species:S:1:pos:R:3 calc_mode=gop-qsc opt_step=622 total_energy=-76.28981782685224 pbc="F F F"
Ag      -1.12559081       5.06162222       0.22768579
Ag      -4.58074094       1.46696700      -0.24937983
Ag       3.60747409      -0.04925898       2.48327198
Ag       1.51218312       1.89940471       2.84201806
Ag       0.75244393       3.11484959       0.29846136
Ag       2.14445061       0.74901920       0.33731816
Ag      -1.80448082      -2.98660551      -0.01209086
Ag      -1.34829097      -4.09891738      -2.46891065
Ag      -1.76891299      -1.38374861       2.39310378
Ag       1.00862656      -0.89205670       2.91173737
Ag      -0.45254872       0.75939493       1.29981291
Ag      -1.58978422      -1.34612921      -2.41859549
Ag       0.52281128      -1.49197186      -0.21735140
Ag      -2.55927766      -0.32639648      -0.09181624
Ag       0.13823041      -3.34546066       1.93183566
Ag       0.70503991      -4.20662047      -0.63802041
Ag      -0.90658806       0.86037472       3.98903856
Ag      -3.06843779       1.18909973       2.20943459
Ag      -0.19233425       0.89003989      -1.39092863
Ag       1.95786810       2.38784497      -2.11428578
Ag      -0.63431004       3.50936999      -2.13191147
Ag       2.37250988      -0.34524936      -2.17052340
Ag       3.03517238      -2.90142487      -1.34369910
Ag      -2.11281790       2.55515941      -0.02327807
Ag       0.83058159      -2.50456356      -2.92818189
Ag       2.67187037      -2.40577033       1.31371765
Ag       4.34302907      -0.77924590      -0.15714742
Ag       0.26975121       0.09697164      -3.92667801
Ag      -1.02568907       3.23082464       2.45985273
Ag      -2.70223827       1.29247724      -2.41448994
