30
Properties=species:S:1:pos:R:3 calc_mode=gop-qsc opt_step=3974 total_energy=-76.97559494866452 pbc="F F F"
Ag      -3.36873665      -2.58933610      -0.62397049
Ag      -2.06237974       2.20833255      -2.94049361
Ag      -0.47347339       2.07753221       3.93408744
Ag      -2.83734374       2.84643238      -0.27005408
Ag      -2.42534114      -0.50898739      -2.37071593
Ag       0.50186796      -2.32010245       1.92812670
Ag      -1.14350877      -4.06751633       0.35537990
Ag       2.81552358      -2.04564058      -2.89818042
Ag      -2.35250290      -2.04029946       2.02424784
Ag       3.76197095      -1.65323153      -0.32215710
Ag       2.08569029       0.06561421      -4.54575121
Ag       2.93429990      -0.99710594       2.32391622
Ag       0.75058073      -0.45061154       4.01059224
Ag      -3.16453308       0.11893909       0.31401512
Ag      -2.82175480       1.94936713       2.40236170
Ag      -0.49200501       3.91388141      -1.39047760
Ag      -0.47517179       3.06664642       1.29577882
Ag      -0.70167393       0.30146742       1.81035197
Ag      -0.71178677       1.21254506      -0.81320695
Ag      -1.14628578      -3.13350164      -2.34736578
Ag       1.74918535       1.57096337       2.28649767
Ag       0.77581869       1.99822940      -3.02236759
Ag       1.74812140       2.51889135      -0.39120425
Ag      -0.95663789      -1.44996135      -0.25274374
Ag       3.00947011       0.57276523      -2.01415547
Ag      -2.07335788      -0.19320907       4.10172694
Ag       1.27861507      -2.96110506      -0.77133326
Ag       1.46764401      -0.24881802       0.12095463
Ag       3.91395256       0.98807837       0.60535299
Ag       0.41375269      -0.75025913      -2.53921267
